[
    {
        "symbol": "H",
        "name": "Hydrogen",
        "atomicNumber": 1,
        "atomicMass": 1.0078, 
        "electronegativity": 2.2,
        "standardState": "gas",
        "group": 1,
        "period": 1,
        "groupBlock": "nonmetal",
        "atomicRadius": 120,
        "electronConfiguration": {
            "orbitals": [
                {"level": 1, "subshell": "s", "electrons": 1}
            ],
            "display": "1s¹"
        },
        "meltingPoint": 13.81,
        "boilingPoint": 20.28,
        "density": 0.00008988,
        "yearDiscovered": 1766,
        "slug": "hydrogen"
    },
    {
        "symbol": "He",
        "name": "Helium",
        "atomicNumber": 2,
        "atomicMass": 4.00260,
        "electronegativity": 0,
        "standardState": "gas",
        "electronConfiguration": {
            "orbitals": [
                {"level": 1, "subshell": "s", "electrons": 2}
            ],
            "display": "1s²"
        },
        "group": 18,
        "period": 1,
        "groupBlock": "noble gas",
        "atomicRadius": 140,
        "meltingPoint": 0.95,
        "boilingPoint": 4.22,
        "density": 0.0001785,
        "yearDiscovered": 1868,
        "slug": "helium"
    },
    {
        "symbol": "Li",
        "name": "Lithium",
        "atomicNumber": 3,
        "atomicMass": 7.0,
        "electronegativity": 0.98,
        "standardState": "solid",
        "electronConfiguration": {
            "core": "He",
            "orbitals": [
                {"level": 2, "subshell": "s", "electrons": 1}
            ],
            "display": "[He]2s¹"
        },
        "group": 1,
        "period": 2,
        "groupBlock": "alkali metal", 
        "atomicRadius": 182, 
        "meltingPoint": 453.65,
        "boilingPoint": 1615,
        "density": 0.534,
        "yearDiscovered": 1817,
        "slug": "lithium"
    }, 
    {
        "symbol": "Be", 
        "name": "Beryllium",
        "atomicNumber": 4,
        "atomicMass": 9.012183,
        "atomicRadius": 153,
        "boilingPoint": 2744,
        "density": 1.85,
        "electronConfiguration": {
            "core": "He",
            "orbitals": [
                {"level": 2, "subshell": "s", "electrons": 2}
            ],
            "display": "[He]2s²"
        },
        "electronegativity": 1.57,
        "group": 2,
        "groupBlock": "alkaline earth metal",
        "meltingPoint": 1560,
        "period": 2,
        "standardState": "solid",
        "yearDiscovered": 1798,
        "slug": "beryllium"
    },
    {
        "symbol": "B",
        "name": "Boron", 
        "atomicNumber": 5,
        "atomicMass": 10.81,
        "atomicRadius": 192,
        "boilingPoint": 4273,
        "density": 2.37,
        "electronConfiguration": {
            "core": "He",
            "orbitals": [
                { "level": 2, "subshell": "s", "electrons": 2 },
                { "level": 2, "subshell": "p", "electrons": 1}
            ],
            "display": "[He]2s² 2p¹"
        },
        "electronegativity": 2.04,
        "group": 13,
        "groupBlock": "metalloid",
        "meltingPoint": 2348,
        "period": 2,
        "standardState": "solid",
        "yearDiscovered": 1808,
        "slug": "boron"
    },
    {
        "symbol": "C",
        "name": "Carbon", 
        "atomicNumber": 6, 
        "atomicMass": 12.011,
        "atomicRadius": 170, 
        "boilingPoint": 4098,
        "density": 2.2670, 
        "electronConfiguration": {
            "core": "He",
            "orbitals": [
                { "level": 2, "subshell": "s", "electrons": 2 },
                { "level": 2, "subshell": "p", "electrons": 2 }
            ],
            "display":"[He]2s² 2p²"
        },
        "electronegativity": 2.55,
        "group": 14,
        "groupBlock": "nonmetal",
        "meltingPoint": 3823,
        "period": 2,
        "slug": "carbon",
        "standardState": "solid",
        "yearDiscovered": "Ancient"
    },
    {
        "symbol": "N",
        "name": "Nitrogen",
        "atomicNumber": 7,
        "atomicMass": 14.007,
        "atomicRadius": 155,
        "boilingPoint": 77.36,
        "density": 0.0012506,
        "electronConfiguration": {
            "core": "He",
            "display": "[He]2s² 2p³",
            "orbitals": [
                { "level": 2, "subshell": "s", "electrons": 2 },
                { "level": 2, "subshell": "p", "electrons": 3 }
            ]
        },
        "electronegativity": 3.04,
        "group": 15, 
        "groupBlock": "nonmetal",
        "meltingPoint": 63.15,
        "period": 2, 
        "slug": "nitrogen",
        "standardState": "gas",
        "yearDiscovered": 1772
    },
    {
        "name": "Oxygen",
        "atomicMass": 15.999,
        "atomicNumber": 8,
        "atomicRadius": 152,
        "boilingPoint": 90.2,
        "density": 0.001429,
        "electronConfiguration": {
            "core": "He",
            "display": "[He]2s² 2p⁴",
            "orbitals": [
                { "level": 2, "subshell": "s", "electrons": 2 },
                { "level": 2, "subshell": "p", "electrons": 4 }
            ]
        },
        "electronegativity": 3.44,
        "group": 16,
        "groupBlock": "nonmetal",
        "meltingPoint": 54.36,
        "slug": "oxygen",
        "period": 2,
        "standardState": "gas",
        "symbol": "O",
        "yearDiscovered": 1774
    },
    {
        "name": "Fluorine",
        "atomicMass": 18.99840316,
        "atomicNumber": 9,
        "atomicRadius": 135,
        "boilingPoint": 85.03,
        "density": 0.001696,
        "electronConfiguration": {
            "core": "He",
            "display": "[He]2s² 2p⁵",
            "orbitals": [
                { "level": 2, "subshell": "s", "electrons": 2 },
                { "level": 2, "subshell": "p", "electrons": 5 }
            ]
        },
        "electronegativity": 3.98,
        "group": 17,
        "groupBlock": "halogen",
        "meltingPoint": 53.53,
        "period": 2,
        "slug": "fluorine",
        "standardState": "gas",
        "symbol": "F",
        "yearDiscovered": 1670
    },
    {
        "name": "Neon",
        "atomicMass": 20.180,
        "atomicNumber": 10,
        "atomicRadius": 154,
        "boilingPoint": 27.07,
        "density": 0.0008999,
        "electronConfiguration": {
            "core": "He",
            "display": "[He]2s² 2p⁶",
            "orbitals": [
                { "level": 2, "subshell": "s", "electrons": 2 },
                { "level": 2, "subshell": "p", "electrons": 6 }
            ]
        },
        "electronegativity": 0,
        "group": 18,
        "groupBlock": "noble gas",
        "meltingPoint": 24.56,
        "period": 2,
        "slug": "neon",
        "standardState": "gas",
        "symbol": "Ne",
        "yearDiscovered": 1898
    },
    {
        "name": "Sodium",
        "atomicMass": 22.9897693,
        "atomicNumber": 11,
        "atomicRadius": 227,
        "boilingPoint": 1156,
        "density": 0.97,
        "electronConfiguration": {
            "core": "Ne",
            "display": "[Ne]3s¹",
            "orbitals": [
                { "level": 3, "subshell": "s", "electrons": 1 }
            ]
        },
        "electronegativity": 0.93,
        "group": 1,
        "groupBlock": "alkali metal",
        "meltingPoint": 370.95,
        "period": 3, 
        "slug": "sodium",
        "standardState": "solid",
        "symbol": "Na",
        "yearDiscovered": 1807
    },
    {
        "name": "Magnesium",
        "atomicMass": 24.305,
        "atomicNumber": 12,
        "atomicRadius": 173,
        "boilingPoint": 1363,
        "density": 1.74,
        "electronConfiguration": {
            "core": "Ne",
            "display": "[Ne]3s²",
            "orbitals": [
                { "level": 3, "subshell": "s", "electrons": 2 }
            ]
        },
        "electronegativity": 1.31,
        "group": 2, 
        "groupBlock":"alkaline earth metal",
        "meltingPoint": 923,
        "period": 3,
        "slug": "magnesium",
        "standardState": "solid",
        "symbol": "Mg",
        "yearDiscovered": 1808
    },
    {
        "name": "Aluminum",
        "atomicMass": 26.981538,
        "atomicNumber": 13,
        "atomicRadius": 184,
        "boilingPoint": 2792,
        "density": 2.70,
        "electronConfiguration": {
            "core": "Ne",
            "display": "[Ne]3s² 3p¹",
            "orbitals": [
                { "level": 3, "subshell": "s", "electrons": 2 },
                { "level": 3, "subshell": "p", "electrons": 1}
            ]
        },
        "electronegativity": 1.61,
        "group": 13, 
        "groupBlock": "post-transition metal",
        "meltingPoint": 933.437,
        "period": 3, 
        "slug": "aluminum",
        "standardState": "solid",
        "symbol": "Al",
        "yearDiscovered": "Ancient"
    },
    {
        "name": "Silicon",
        "atomicMass": 28.085,
        "atomicNumber": 14, 
        "atomicRadius": 210,
        "boilingPoint": 3538,
        "density": 2.3296,
        "electronConfiguration": {
            "core": "Ne",
            "display": "[Ne]3s² 3p²",
            "orbitals": [
                { "level": 3, "subshell": "s", "electrons": 2 }, 
                { "level": 3, "subshell": "p", "electrons": 2 }
            ]
        },
        "electronegativity": 1.9,
        "group": 14,
        "groupBlock": "metalloid",
        "meltingPoint": 1687,
        "period": 3,
        "slug": "silicon",
        "standardState": "solid",
        "symbol": "Si",
        "yearDiscovered": 1854
    },
    {
        "name": "Phosphorus",
        "atomicMass": 30.97376200,
        "atomicNumber": 15,
        "atomicRadius": 180,
        "boilingPoint": 553.65,
        "density": 1.82,
        "electronConfiguration": {
            "core": "Ne",
            "display":"[Ne]3s² 3p³",
            "orbitals": [
                { "level": 3, "subshell": "s", "electrons": 2 },
                { "level": 3, "subshell": "p", "electrons": 3 }
            ]
        },
        "electronegativity": 2.19,
        "group": 15,
        "groupBlock": "nonmetal",
        "meltingPoint": 317.3,
        "period": 3,
        "slug": "phosphorus",
        "standardState": "solid",
        "symbol": "P",
        "yearDiscovered": 1669
    },
    {
        "name": "Sulfur",
        "atomicMass": 32.07,
        "atomicNumber": 16,
        "atomicRadius": 180,
        "boilingPoint": 717.75,
        "density": 2.067,
        "electronConfiguration": {
            "core": "Ne",
            "display":"[Ne]3s² 3p⁴",
            "orbitals": [
                { "level": 3, "subshell": "s", "electrons": 2 },
                { "level": 3, "subshell": "p", "electrons": 4 }
            ]
        },
        "electronegativity": 2.58,
        "group": 16,
        "groupBlock": "nonmetal",
        "meltingPoint": 388.36,
        "period": 3,
        "slug": "sulfur",
        "standardState": "solid",
        "symbol": "S",
        "yearDiscovered": "Ancient"
    },
    {
        "name": "Chlorine", 
        "atomicMass": 35.45,
        "atomicNumber": 17,
        "atomicRadius": 175,
        "boilingPoint": 239.11,
        "density": 0.003214,
        "electronConfiguration": {
            "core": "Ne",
            "display":"[Ne]3s² 3p⁵",
            "orbitals": [
                { "level": 3, "subshell": "s", "electrons": 2 },
                { "level": 3, "subshell": "p", "electrons": 5 }
            ]
        },
        "electronegativity": 3.16,
        "group": 17,
        "groupBlock": "halogen",
        "meltingPoint": 171.65,
        "period": 3,
        "slug": "chlorine",
        "standardState": "gas",
        "symbol": "Cl",
        "yearDiscovered": 1774
    },
    {
        "name": "Argon",
        "atomicMass": 39.9,
        "atomicNumber": 18,
        "atomicRadius": 188,
        "boilingPoint": 87.3,
        "density": 0.0017837,
        "electronConfiguration": {
            "core": "Ne",
            "display":"[Ne]3s² 3p⁶",
            "orbitals": [
                { "level": 3, "subshell": "s", "electrons": 2 },
                { "level": 3, "subshell": "p", "electrons": 6 }
            ]
        },
        "electronegativity": 0,
        "group": 18,
        "groupBlock":"noble gas",
        "meltingPoint": 83.8,
        "period": 3,
        "slug": "argon",
        "standardState": "gas",
        "symbol": "Ar",
        "yearDiscovered": 1894
    },
    {
        "name": "Potassium", 
        "atomicMass": 39.0983,
        "atomicNumber": 19,
        "atomicRadius": 275,
        "boilingPoint": 1032,
        "density": 0.89,
        "electronConfiguration": {
            "core": "Ar",
            "display": "[Ar]4s¹",
            "orbitals": [
                { "level": 4, "subshell": "s", "electrons": 1 }
            ]
        },
        "electronegativity": 0.82,
        "group": 1,
        "groupBlock":"alkali metal",
        "meltingPoint": 336.53,
        "period": 4,
        "slug": "potassium",
        "standardState": "solid",
        "symbol": "K",
        "yearDiscovered": 1807 
    },
    {
        "name": "Calcium",
        "atomicMass": 40.08,
        "atomicNumber": 20,
        "atomicRadius": 231,
        "boilingPoint": 1757,
        "density": 1.54,
        "electronConfiguration": {
            "core": "Ar",
            "display": "[Ar]4s²",
            "orbitals": [
                { "level": 4, "subshell": "s", "electrons": 2 }
            ]
        },
        "electronegativity": 1,
        "group": 2,
        "groupBlock":"alkaline earth metal",
        "meltingPoint": 1115,
        "period": 4,
        "slug": "calcium",
        "standardState": "solid",
        "symbol": "Ca",
        "yearDiscovered": "Ancient"
    },
    {
        "name": "Scandium",
        "atomicMass": 44.95591,
        "atomicNumber": 21,
        "atomicRadius": 211,
        "boilingPoint": 3109,
        "density": 2.99,
        "electronConfiguration": {
            "core": "Ar",
            "display": "[Ar]4s² 3d¹",
            "orbitals": [
                { "level": 4, "subshell": "s", "electrons": 2 },
                { "level": 3, "subshell": "d", "electrons": 1 }
            ]
        },
        "electronegativity": 1.36,
        "group": 3,
        "groupBlock": "transition metal",
        "meltingPoint": 1814,
        "period": 4,
        "slug": "scandium",
        "standardState": "solid",
        "symbol": "Sc",
        "yearDiscovered": 1879
    }
]